Title: * qw-gnetlist -gspice-sdb -o mosfet.cir mosfet.sch
Date: Fri Mar 26 20:38:31  2010
Plotname: DC transfer characteristic
Flags: real
No. Variables: 7
No. Points: 60006
Variables:
	0	v-sweep	voltage
	1	v(1)	voltage
	2	vds	voltage
	3	i(vds)	current
	4	vgs	voltage
	5	i(vgs)	current
	6	i(vids)	current
Values:
 50005	0.000000000000000e+00
	0.000000000000000e+00
	0.000000000000000e+00
	2.579477076625659e-20
	5.000000000000000e+00
	0.000000000000000e+00
	-2.579477076625659e-20

 50006	1.000000000000000e-03
	1.000000000000000e-03
	1.000000000000000e-03
	-1.443666417282529e-07
	5.000000000000000e+00
	0.000000000000000e+00
	1.443666417282529e-07

 50007	2.000000000000000e-03
	2.000000000000000e-03
	2.000000000000000e-03
	-2.886007006968477e-07
	5.000000000000000e+00
	0.000000000000000e+00
	2.886007006968477e-07

 50008	3.000000000000000e-03
	3.000000000000000e-03
	3.000000000000000e-03
	-4.328016477752597e-07
	5.000000000000000e+00
	0.000000000000000e+00
	4.328016477752597e-07

 50009	4.000000000000000e-03
	4.000000000000000e-03
	4.000000000000000e-03
	-5.769363573676894e-07
	5.000000000000000e+00
	0.000000000000000e+00
	5.769363573676894e-07

 50010	5.000000000000000e-03
	5.000000000000000e-03
	5.000000000000000e-03
	-7.210048529810494e-07
	5.000000000000000e+00
	0.000000000000000e+00
	7.210048529810494e-07

 50011	6.000000000000000e-03
	6.000000000000000e-03
	6.000000000000000e-03
	-8.650071581105430e-07
	5.000000000000000e+00
	0.000000000000000e+00
	8.650071581105430e-07

 50012	7.000000000000000e-03
	7.000000000000000e-03
	7.000000000000000e-03
	-1.008943296241073e-06
	5.000000000000000e+00
	0.000000000000000e+00
	1.008943296241073e-06

 50013	8.000000000000000e-03
	8.000000000000000e-03
	8.000000000000000e-03
	-1.152813290847135e-06
	5.000000000000000e+00
	0.000000000000000e+00
	1.152813290847135e-06

 50014	9.000000000000001e-03
	9.000000000000001e-03
	9.000000000000001e-03
	-1.296617165390864e-06
	5.000000000000000e+00
	0.000000000000000e+00
	1.296617165390864e-06

 50015	1.000000000000000e-02
	1.000000000000000e-02
	1.000000000000000e-02
	-1.440354943324420e-06
	5.000000000000000e+00
	0.000000000000000e+00
	1.440354943324420e-06

 50016	1.100000000000000e-02
	1.100000000000000e-02
	1.100000000000000e-02
	-1.584026648089555e-06
	5.000000000000000e+00
	0.000000000000000e+00
	1.584026648089555e-06

 50017	1.200000000000000e-02
	1.200000000000000e-02
	1.200000000000000e-02
	-1.727632303114577e-06
	5.000000000000000e+00
	0.000000000000000e+00
	1.727632303114577e-06

 50018	1.300000000000000e-02
	1.300000000000000e-02
	1.300000000000000e-02
	-1.871171931819987e-06
	5.000000000000000e+00
	0.000000000000000e+00
	1.871171931819987e-06

 50019	1.400000000000001e-02
	1.400000000000001e-02
	1.400000000000001e-02
	-2.014645557613711e-06
	5.000000000000000e+00
	0.000000000000000e+00
	2.014645557613711e-06

 50020	1.500000000000001e-02
	1.500000000000001e-02
	1.500000000000001e-02
	-2.158053203892181e-06
	5.000000000000000e+00
	0.000000000000000e+00
	2.158053203892181e-06

 50021	1.600000000000001e-02
	1.600000000000001e-02
	1.600000000000001e-02
	-2.301394894042939e-06
	5.000000000000000e+00
	0.000000000000000e+00
	2.301394894042939e-06

 50022	1.700000000000001e-02
	1.700000000000001e-02
	1.700000000000001e-02
	-2.444670651440949e-06
	5.000000000000000e+00
	0.000000000000000e+00
	2.444670651440949e-06

 50023	1.800000000000001e-02
	1.800000000000001e-02
	1.800000000000001e-02
	-2.587880499449469e-06
	5.000000000000000e+00
	0.000000000000000e+00
	2.587880499449469e-06

 50024	1.900000000000001e-02
	1.900000000000001e-02
	1.900000000000001e-02
	-2.731024461423513e-06
	5.000000000000000e+00
	0.000000000000000e+00
	2.731024461423513e-06

 50025	2.000000000000001e-02
	2.000000000000001e-02
	2.000000000000001e-02
	-2.874102560707255e-06
	5.000000000000000e+00
	0.000000000000000e+00
	2.874102560707255e-06

 50026	2.100000000000001e-02
	2.100000000000001e-02
	2.100000000000001e-02
	-3.017114820629690e-06
	5.000000000000000e+00
	0.000000000000000e+00
	3.017114820629690e-06

 50027	2.200000000000001e-02
	2.200000000000001e-02
	2.200000000000001e-02
	-3.160061264512442e-06
	5.000000000000000e+00
	0.000000000000000e+00
	3.160061264512442e-06

 50028	2.300000000000001e-02
	2.300000000000001e-02
	2.300000000000001e-02
	-3.302941915666723e-06
	5.000000000000000e+00
	0.000000000000000e+00
	3.302941915666723e-06

 50029	2.400000000000001e-02
	2.400000000000001e-02
	2.400000000000001e-02
	-3.445756797392039e-06
	5.000000000000000e+00
	0.000000000000000e+00
	3.445756797392039e-06

 50030	2.500000000000002e-02
	2.500000000000002e-02
	2.500000000000002e-02
	-3.588505932974884e-06
	5.000000000000000e+00
	0.000000000000000e+00
	3.588505932974884e-06

 50031	2.600000000000002e-02
	2.600000000000002e-02
	2.600000000000002e-02
	-3.731189345694379e-06
	5.000000000000000e+00
	0.000000000000000e+00
	3.731189345694379e-06

 50032	2.700000000000002e-02
	2.700000000000002e-02
	2.700000000000002e-02
	-3.873807058817069e-06
	5.000000000000000e+00
	0.000000000000000e+00
	3.873807058817069e-06

 50033	2.800000000000002e-02
	2.800000000000002e-02
	2.800000000000002e-02
	-4.016359095597791e-06
	5.000000000000000e+00
	0.000000000000000e+00
	4.016359095597791e-06

 50034	2.900000000000002e-02
	2.900000000000002e-02
	2.900000000000002e-02
	-4.158845479282705e-06
	5.000000000000000e+00
	0.000000000000000e+00
	4.158845479282705e-06

 50035	3.000000000000002e-02
	3.000000000000002e-02
	3.000000000000002e-02
	-4.301266233104964e-06
	5.000000000000000e+00
	0.000000000000000e+00
	4.301266233104964e-06

 50036	3.100000000000002e-02
	3.100000000000002e-02
	3.100000000000002e-02
	-4.443621380288178e-06
	5.000000000000000e+00
	0.000000000000000e+00
	4.443621380288178e-06

 50037	3.200000000000002e-02
	3.200000000000002e-02
	3.200000000000002e-02
	-4.585910944047283e-06
	5.000000000000000e+00
	0.000000000000000e+00
	4.585910944047283e-06

 50038	3.300000000000002e-02
	3.300000000000002e-02
	3.300000000000002e-02
	-4.728134947581605e-06
	5.000000000000000e+00
	0.000000000000000e+00
	4.728134947581605e-06

 50039	3.400000000000002e-02
	3.400000000000002e-02
	3.400000000000002e-02
	-4.870293414079192e-06
	5.000000000000000e+00
	0.000000000000000e+00
	4.870293414079192e-06

 50040	3.500000000000002e-02
	3.500000000000002e-02
	3.500000000000002e-02
	-5.012386366727226e-06
	5.000000000000000e+00
	0.000000000000000e+00
	5.012386366727226e-06

 50041	3.600000000000003e-02
	3.600000000000003e-02
	3.600000000000003e-02
	-5.154413828692070e-06
	5.000000000000000e+00
	0.000000000000000e+00
	5.154413828692070e-06

 50042	3.700000000000003e-02
	3.700000000000003e-02
	3.700000000000003e-02
	-5.296375823128814e-06
	5.000000000000000e+00
	0.000000000000000e+00
	5.296375823128814e-06

 50043	3.800000000000003e-02
	3.800000000000003e-02
	3.800000000000003e-02
	-5.438272373191680e-06
	5.000000000000000e+00
	0.000000000000000e+00
	5.438272373191680e-06

 50044	3.900000000000003e-02
	3.900000000000003e-02
	3.900000000000003e-02
	-5.580103502010603e-06
	5.000000000000000e+00
	0.000000000000000e+00
	5.580103502010603e-06

 50045	4.000000000000003e-02
	4.000000000000003e-02
	4.000000000000003e-02
	-5.721869232716385e-06
	5.000000000000000e+00
	0.000000000000000e+00
	5.721869232716385e-06

 50046	4.100000000000003e-02
	4.100000000000003e-02
	4.100000000000003e-02
	-5.863569588424218e-06
	5.000000000000000e+00
	0.000000000000000e+00
	5.863569588424218e-06

 50047	4.200000000000003e-02
	4.200000000000003e-02
	4.200000000000003e-02
	-6.005204592238016e-06
	5.000000000000000e+00
	0.000000000000000e+00
	6.005204592238016e-06

 50048	4.300000000000003e-02
	4.300000000000003e-02
	4.300000000000003e-02
	-6.146774267253019e-06
	5.000000000000000e+00
	0.000000000000000e+00
	6.146774267253019e-06

 50049	4.400000000000003e-02
	4.400000000000003e-02
	4.400000000000003e-02
	-6.288278636549724e-06
	5.000000000000000e+00
	0.000000000000000e+00
	6.288278636549724e-06

 50050	4.500000000000003e-02
	4.500000000000003e-02
	4.500000000000003e-02
	-6.429717723204290e-06
	5.000000000000000e+00
	0.000000000000000e+00
	6.429717723204290e-06

 50051	4.600000000000003e-02
	4.600000000000003e-02
	4.600000000000003e-02
	-6.571091550274660e-06
	5.000000000000000e+00
	0.000000000000000e+00
	6.571091550274660e-06

 50052	4.700000000000003e-02
	4.700000000000003e-02
	4.700000000000003e-02
	-6.712400140816178e-06
	5.000000000000000e+00
	0.000000000000000e+00
	6.712400140816178e-06

 50053	4.800000000000004e-02
	4.800000000000004e-02
	4.800000000000004e-02
	-6.853643517867707e-06
	5.000000000000000e+00
	0.000000000000000e+00
	6.853643517867707e-06

 50054	4.900000000000004e-02
	4.900000000000004e-02
	4.900000000000004e-02
	-6.994821704457699e-06
	5.000000000000000e+00
	0.000000000000000e+00
	6.994821704457699e-06

 50055	5.000000000000004e-02
	5.000000000000004e-02
	5.000000000000004e-02
	-7.135934723605936e-06
	5.000000000000000e+00
	0.000000000000000e+00
	7.135934723605936e-06

 50056	5.100000000000004e-02
	5.100000000000004e-02
	5.100000000000004e-02
	-7.276982598320922e-06
	5.000000000000000e+00
	0.000000000000000e+00
	7.276982598320922e-06

 50057	5.200000000000004e-02
	5.200000000000004e-02
	5.200000000000004e-02
	-7.417965351599887e-06
	5.000000000000000e+00
	0.000000000000000e+00
	7.417965351599887e-06

 50058	5.300000000000004e-02
	5.300000000000004e-02
	5.300000000000004e-02
	-7.558883006429651e-06
	5.000000000000000e+00
	0.000000000000000e+00
	7.558883006429651e-06

 50059	5.400000000000004e-02
	5.400000000000004e-02
	5.400000000000004e-02
	-7.699735585784892e-06
	5.000000000000000e+00
	0.000000000000000e+00
	7.699735585784892e-06

 50060	5.500000000000004e-02
	5.500000000000004e-02
	5.500000000000004e-02
	-7.840523112635084e-06
	5.000000000000000e+00
	0.000000000000000e+00
	7.840523112635084e-06

 50061	5.600000000000004e-02
	5.600000000000004e-02
	5.600000000000004e-02
	-7.981245609930618e-06
	5.000000000000000e+00
	0.000000000000000e+00
	7.981245609930618e-06

 50062	5.700000000000004e-02
	5.700000000000004e-02
	5.700000000000004e-02
	-8.121903100620151e-06
	5.000000000000000e+00
	0.000000000000000e+00
	8.121903100620151e-06

 50063	5.800000000000004e-02
	5.800000000000004e-02
	5.800000000000004e-02
	-8.262495607636727e-06
	5.000000000000000e+00
	0.000000000000000e+00
	8.262495607636727e-06

 50064	5.900000000000005e-02
	5.900000000000005e-02
	5.900000000000005e-02
	-8.403023153899514e-06
	5.000000000000000e+00
	0.000000000000000e+00
	8.403023153899514e-06

 50065	6.000000000000005e-02
	6.000000000000005e-02
	6.000000000000005e-02
	-8.543485762325942e-06
	5.000000000000000e+00
	0.000000000000000e+00
	8.543485762325942e-06

 50066	6.100000000000005e-02
	6.100000000000005e-02
	6.100000000000005e-02
	-8.683883455812627e-06
	5.000000000000000e+00
	0.000000000000000e+00
	8.683883455812627e-06

 50067	6.200000000000005e-02
	6.200000000000005e-02
	6.200000000000005e-02
	-8.824216257252715e-06
	5.000000000000000e+00
	0.000000000000000e+00
	8.824216257252715e-06

 50068	6.300000000000004e-02
	6.300000000000004e-02
	6.300000000000004e-02
	-8.964484189527208e-06
	5.000000000000000e+00
	0.000000000000000e+00
	8.964484189527208e-06

 50069	6.400000000000004e-02
	6.400000000000004e-02
	6.400000000000004e-02
	-9.104687275504966e-06
	5.000000000000000e+00
	0.000000000000000e+00
	9.104687275504966e-06

 50070	6.500000000000004e-02
	6.500000000000004e-02
	6.500000000000004e-02
	-9.244825538051379e-06
	5.000000000000000e+00
	0.000000000000000e+00
	9.244825538051379e-06

 50071	6.600000000000004e-02
	6.600000000000004e-02
	6.600000000000004e-02
	-9.384899000000613e-06
	5.000000000000000e+00
	0.000000000000000e+00
	9.384899000000613e-06

 50072	6.700000000000005e-02
	6.700000000000005e-02
	6.700000000000005e-02
	-9.524907684205913e-06
	5.000000000000000e+00
	0.000000000000000e+00
	9.524907684205913e-06

 50073	6.800000000000005e-02
	6.800000000000005e-02
	6.800000000000005e-02
	-9.664851613485834e-06
	5.000000000000000e+00
	0.000000000000000e+00
	9.664851613485834e-06

 50074	6.900000000000005e-02
	6.900000000000005e-02
	6.900000000000005e-02
	-9.804730810664131e-06
	5.000000000000000e+00
	0.000000000000000e+00
	9.804730810664131e-06

 50075	7.000000000000005e-02
	7.000000000000005e-02
	7.000000000000005e-02
	-9.944545298536805e-06
	5.000000000000000e+00
	0.000000000000000e+00
	9.944545298536805e-06

 50076	7.100000000000005e-02
	7.100000000000005e-02
	7.100000000000005e-02
	-1.008429509990853e-05
	5.000000000000000e+00
	0.000000000000000e+00
	1.008429509990853e-05

 50077	7.200000000000005e-02
	7.200000000000005e-02
	7.200000000000005e-02
	-1.022398023755970e-05
	5.000000000000000e+00
	0.000000000000000e+00
	1.022398023755970e-05

 50078	7.300000000000005e-02
	7.300000000000005e-02
	7.300000000000005e-02
	-1.036360073426723e-05
	5.000000000000000e+00
	0.000000000000000e+00
	1.036360073426723e-05

 50079	7.400000000000005e-02
	7.400000000000005e-02
	7.400000000000005e-02
	-1.050315661279590e-05
	5.000000000000000e+00
	0.000000000000000e+00
	1.050315661279590e-05

 50080	7.500000000000005e-02
	7.500000000000005e-02
	7.500000000000005e-02
	-1.064264789589486e-05
	5.000000000000000e+00
	0.000000000000000e+00
	1.064264789589486e-05

 50081	7.600000000000005e-02
	7.600000000000005e-02
	7.600000000000005e-02
	-1.078207460630809e-05
	5.000000000000000e+00
	0.000000000000000e+00
	1.078207460630809e-05

 50082	7.700000000000005e-02
	7.700000000000005e-02
	7.700000000000005e-02
	-1.092143676677260e-05
	5.000000000000000e+00
	0.000000000000000e+00
	1.092143676677260e-05

 50083	7.800000000000006e-02
	7.800000000000006e-02
	7.800000000000006e-02
	-1.106073440000806e-05
	5.000000000000000e+00
	0.000000000000000e+00
	1.106073440000806e-05

 50084	7.900000000000006e-02
	7.900000000000006e-02
	7.900000000000006e-02
	-1.119996752872547e-05
	5.000000000000000e+00
	0.000000000000000e+00
	1.119996752872547e-05

 50085	8.000000000000006e-02
	8.000000000000006e-02
	8.000000000000006e-02
	-1.133913617561849e-05
	5.000000000000000e+00
	0.000000000000000e+00
	1.133913617561849e-05

 50086	8.100000000000006e-02
	8.100000000000006e-02
	8.100000000000006e-02
	-1.147824036339118e-05
	5.000000000000000e+00
	0.000000000000000e+00
	1.147824036339118e-05

 50087	8.200000000000006e-02
	8.200000000000006e-02
	8.200000000000006e-02
	-1.161728011471290e-05
	5.000000000000000e+00
	0.000000000000000e+00
	1.161728011471290e-05

 50088	8.300000000000006e-02
	8.300000000000006e-02
	8.300000000000006e-02
	-1.175625545225822e-05
	5.000000000000000e+00
	0.000000000000000e+00
	1.175625545225822e-05

 50089	8.400000000000006e-02
	8.400000000000006e-02
	8.400000000000006e-02
	-1.189516639868264e-05
	5.000000000000000e+00
	0.000000000000000e+00
	1.189516639868264e-05

 50090	8.500000000000006e-02
	8.500000000000006e-02
	8.500000000000006e-02
	-1.203401297663817e-05
	5.000000000000000e+00
	0.000000000000000e+00
	1.203401297663817e-05

 50091	8.600000000000006e-02
	8.600000000000006e-02
	8.600000000000006e-02
	-1.217279520875775e-05
	5.000000000000000e+00
	0.000000000000000e+00
	1.217279520875775e-05

 50092	8.700000000000006e-02
	8.700000000000006e-02
	8.700000000000006e-02
	-1.231151311767084e-05
	5.000000000000000e+00
	0.000000000000000e+00
	1.231151311767084e-05

 50093	8.800000000000006e-02
	8.800000000000006e-02
	8.800000000000006e-02
	-1.245016672599304e-05
	5.000000000000000e+00
	0.000000000000000e+00
	1.245016672599304e-05

 50094	8.900000000000007e-02
	8.900000000000007e-02
	8.900000000000007e-02
	-1.258875605633300e-05
	5.000000000000000e+00
	0.000000000000000e+00
	1.258875605633300e-05

 50095	9.000000000000007e-02
	9.000000000000007e-02
	9.000000000000007e-02
	-1.272728113128722e-05
	5.000000000000000e+00
	0.000000000000000e+00
	1.272728113128722e-05

 50096	9.100000000000007e-02
	9.100000000000007e-02
	9.100000000000007e-02
	-1.286574197344008e-05
	5.000000000000000e+00
	0.000000000000000e+00
	1.286574197344008e-05

 50097	9.200000000000007e-02
	9.200000000000007e-02
	9.200000000000007e-02
	-1.300413860536552e-05
	5.000000000000000e+00
	0.000000000000000e+00
	1.300413860536552e-05

 50098	9.300000000000007e-02
	9.300000000000007e-02
	9.300000000000007e-02
	-1.314247104963404e-05
	5.000000000000000e+00
	0.000000000000000e+00
	1.314247104963404e-05

 50099	9.400000000000007e-02
	9.400000000000007e-02
	9.400000000000007e-02
	-1.328073932878836e-05
	5.000000000000000e+00
	0.000000000000000e+00
	1.328073932878836e-05

 50100	9.500000000000007e-02
	9.500000000000007e-02
	9.500000000000007e-02
	-1.341894346538162e-05
	5.000000000000000e+00
	0.000000000000000e+00
	1.341894346538162e-05

 50101	9.600000000000007e-02
	9.600000000000007e-02
	9.600000000000007e-02
	-1.355708348193749e-05
	5.000000000000000e+00
	0.000000000000000e+00
	1.355708348193749e-05

 50102	9.700000000000007e-02
	9.700000000000007e-02
	9.700000000000007e-02
	-1.369515940099347e-05
	5.000000000000000e+00
	0.000000000000000e+00
	1.369515940099347e-05

 50103	9.800000000000007e-02
	9.800000000000007e-02
	9.800000000000007e-02
	-1.383317124505068e-05
	5.000000000000000e+00
	0.000000000000000e+00
	1.383317124505068e-05

 50104	9.900000000000007e-02
	9.900000000000007e-02
	9.900000000000007e-02
	-1.397111903661888e-05
	5.000000000000000e+00
	0.000000000000000e+00
	1.397111903661888e-05

 50105	1.000000000000001e-01
	1.000000000000001e-01
	1.000000000000001e-01
	-1.410900279818009e-05
	5.000000000000000e+00
	0.000000000000000e+00
	1.410900279818009e-05

 50106	1.010000000000001e-01
	1.010000000000001e-01
	1.010000000000001e-01
	-1.424682255222326e-05
	5.000000000000000e+00
	0.000000000000000e+00
	1.424682255222326e-05

 50107	1.020000000000001e-01
	1.020000000000001e-01
	1.020000000000001e-01
	-1.438457832122347e-05
	5.000000000000000e+00
	0.000000000000000e+00
	1.438457832122347e-05

 50108	1.030000000000001e-01
	1.030000000000001e-01
	1.030000000000001e-01
	-1.452227012762458e-05
	5.000000000000000e+00
	0.000000000000000e+00
	1.452227012762458e-05

 50109	1.040000000000001e-01
	1.040000000000001e-01
	1.040000000000001e-01
	-1.465989799389125e-05
	5.000000000000000e+00
	0.000000000000000e+00
	1.465989799389125e-05

 50110	1.050000000000001e-01
	1.050000000000001e-01
	1.050000000000001e-01
	-1.479746194246040e-05
	5.000000000000000e+00
	0.000000000000000e+00
	1.479746194246040e-05

 50111	1.060000000000001e-01
	1.060000000000001e-01
	1.060000000000001e-01
	-1.493496199575506e-05
	5.000000000000000e+00
	0.000000000000000e+00
	1.493496199575506e-05

 50112	1.070000000000001e-01
	1.070000000000001e-01
	1.070000000000001e-01
	-1.507239817620520e-05
	5.000000000000000e+00
	0.000000000000000e+00
	1.507239817620520e-05

 50113	1.080000000000001e-01
	1.080000000000001e-01
	1.080000000000001e-01
	-1.520977050620612e-05
	5.000000000000000e+00
	0.000000000000000e+00
	1.520977050620612e-05

 50114	1.090000000000001e-01
	1.090000000000001e-01
	1.090000000000001e-01
	-1.534707900817042e-05
	5.000000000000000e+00
	0.000000000000000e+00
	1.534707900817042e-05

 50115	1.100000000000001e-01
	1.100000000000001e-01
	1.100000000000001e-01
	-1.548432370447606e-05
	5.000000000000000e+00
	0.000000000000000e+00
	1.548432370447606e-05

 50116	1.110000000000001e-01
	1.110000000000001e-01
	1.110000000000001e-01
	-1.562150461750789e-05
	5.000000000000000e+00
	0.000000000000000e+00
	1.562150461750789e-05

 50117	1.120000000000001e-01
	1.120000000000001e-01
	1.120000000000001e-01
	-1.575862176962650e-05
	5.000000000000000e+00
	0.000000000000000e+00
	1.575862176962650e-05

 50118	1.130000000000001e-01
	1.130000000000001e-01
	1.130000000000001e-01
	-1.589567518319249e-05
	5.000000000000000e+00
	0.000000000000000e+00
	1.589567518319249e-05

 50119	1.140000000000001e-01
	1.140000000000001e-01
	1.140000000000001e-01
	-1.603266488054561e-05
	5.000000000000000e+00
	0.000000000000000e+00
	1.603266488054561e-05

 50120	1.150000000000001e-01
	1.150000000000001e-01
	1.150000000000001e-01
	-1.616959088403952e-05
	5.000000000000000e+00
	0.000000000000000e+00
	1.616959088403952e-05

 50121	1.160000000000001e-01
	1.160000000000001e-01
	1.160000000000001e-01
	-1.630645321598276e-05
	5.000000000000000e+00
	0.000000000000000e+00
	1.630645321598276e-05

 50122	1.170000000000001e-01
	1.170000000000001e-01
	1.170000000000001e-01
	-1.644325189869081e-05
	5.000000000000000e+00
	0.000000000000000e+00
	1.644325189869081e-05

 50123	1.180000000000001e-01
	1.180000000000001e-01
	1.180000000000001e-01
	-1.657998695448609e-05
	5.000000000000000e+00
	0.000000000000000e+00
	1.657998695448609e-05

 50124	1.190000000000001e-01
	1.190000000000001e-01
	1.190000000000001e-01
	-1.671665840565287e-05
	5.000000000000000e+00
	0.000000000000000e+00
	1.671665840565287e-05

 50125	1.200000000000001e-01
	1.200000000000001e-01
	1.200000000000001e-01
	-1.685326627447886e-05
	5.000000000000000e+00
	0.000000000000000e+00
	1.685326627447886e-05

 50126	1.210000000000001e-01
	1.210000000000001e-01
	1.210000000000001e-01
	-1.698981058323099e-05
	5.000000000000000e+00
	0.000000000000000e+00
	1.698981058323099e-05

 50127	1.220000000000001e-01
	1.220000000000001e-01
	1.220000000000001e-01
	-1.712629135418309e-05
	5.000000000000000e+00
	0.000000000000000e+00
	1.712629135418309e-05

 50128	1.230000000000001e-01
	1.230000000000001e-01
	1.230000000000001e-01
	-1.726270860958473e-05
	5.000000000000000e+00
	0.000000000000000e+00
	1.726270860958473e-05

 50129	1.240000000000001e-01
	1.240000000000001e-01
	1.240000000000001e-01
	-1.739906237168201e-05
	5.000000000000000e+00
	0.000000000000000e+00
	1.739906237168201e-05

 50130	1.250000000000001e-01
	1.250000000000001e-01
	1.250000000000001e-01
	-1.753535266270020e-05
	5.000000000000000e+00
	0.000000000000000e+00
	1.753535266270020e-05

 50131	1.260000000000001e-01
	1.260000000000001e-01
	1.260000000000001e-01
	-1.767157950488540e-05
	5.000000000000000e+00
	0.000000000000000e+00
	1.767157950488540e-05

 50132	1.270000000000001e-01
	1.270000000000001e-01
	1.270000000000001e-01
	-1.780774292041432e-05
	5.000000000000000e+00
	0.000000000000000e+00
	1.780774292041432e-05

 50133	1.280000000000001e-01
	1.280000000000001e-01
	1.280000000000001e-01
	-1.794384293153303e-05
	5.000000000000000e+00
	0.000000000000000e+00
	1.794384293153303e-05

 50134	1.290000000000001e-01
	1.290000000000001e-01
	1.290000000000001e-01
	-1.807987956039397e-05
	5.000000000000000e+00
	0.000000000000000e+00
	1.807987956039397e-05

 50135	1.300000000000001e-01
	1.300000000000001e-01
	1.300000000000001e-01
	-1.821585282920854e-05
	5.000000000000000e+00
	0.000000000000000e+00
	1.821585282920854e-05

 50136	1.310000000000001e-01
	1.310000000000001e-01
	1.310000000000001e-01
	-1.835176276013609e-05
	5.000000000000000e+00
	0.000000000000000e+00
	1.835176276013609e-05

 50137	1.320000000000001e-01
	1.320000000000001e-01
	1.320000000000001e-01
	-1.848760937533597e-05
	5.000000000000000e+00
	0.000000000000000e+00
	1.848760937533597e-05

 50138	1.330000000000001e-01
	1.330000000000001e-01
	1.330000000000001e-01
	-1.862339269697796e-05
	5.000000000000000e+00
	0.000000000000000e+00
	1.862339269697796e-05

 50139	1.340000000000001e-01
	1.340000000000001e-01
	1.340000000000001e-01
	-1.875911274716938e-05
	5.000000000000000e+00
	0.000000000000000e+00
	1.875911274716938e-05

 50140	1.350000000000001e-01
	1.350000000000001e-01
	1.350000000000001e-01
	-1.889476954807304e-05
	5.000000000000000e+00
	0.000000000000000e+00
	1.889476954807304e-05

 50141	1.360000000000001e-01
	1.360000000000001e-01
	1.360000000000001e-01
	-1.903036312179626e-05
	5.000000000000000e+00
	0.000000000000000e+00
	1.903036312179626e-05

 50142	1.370000000000001e-01
	1.370000000000001e-01
	1.370000000000001e-01
	-1.916589349046371e-05
	5.000000000000000e+00
	0.000000000000000e+00
	1.916589349046371e-05

 50143	1.380000000000001e-01
	1.380000000000001e-01
	1.380000000000001e-01
	-1.930136067615495e-05
	5.000000000000000e+00
	0.000000000000000e+00
	1.930136067615495e-05

 50144	1.390000000000001e-01
	1.390000000000001e-01
	1.390000000000001e-01
	-1.943676470097730e-05
	5.000000000000000e+00
	0.000000000000000e+00
	1.943676470097730e-05

 50145	1.400000000000001e-01
	1.400000000000001e-01
	1.400000000000001e-01
	-1.957210558700684e-05
	5.000000000000000e+00
	0.000000000000000e+00
	1.957210558700684e-05

 50146	1.410000000000001e-01
	1.410000000000001e-01
	1.410000000000001e-01
	-1.970738335630925e-05
	5.000000000000000e+00
	0.000000000000000e+00
	1.970738335630925e-05

 50147	1.420000000000001e-01
	1.420000000000001e-01
	1.420000000000001e-01
	-1.984259803095370e-05
	5.000000000000000e+00
	0.000000000000000e+00
	1.984259803095370e-05

 50148	1.430000000000001e-01
	1.430000000000001e-01
	1.430000000000001e-01
	-1.997774963297463e-05
	5.000000000000000e+00
	0.000000000000000e+00
	1.997774963297463e-05

 50149	1.440000000000001e-01
	1.440000000000001e-01
	1.440000000000001e-01
	-2.011283818443080e-05
	5.000000000000000e+00
	0.000000000000000e+00
	2.011283818443080e-05

 50150	1.450000000000001e-01
	1.450000000000001e-01
	1.450000000000001e-01
	-2.024786370734277e-05
	5.000000000000000e+00
	0.000000000000000e+00
	2.024786370734277e-05

 50151	1.460000000000001e-01
	1.460000000000001e-01
	1.460000000000001e-01
	-2.038282622373461e-05
	5.000000000000000e+00
	0.000000000000000e+00
	2.038282622373461e-05

 50152	1.470000000000001e-01
	1.470000000000001e-01
	1.470000000000001e-01
	-2.051772575560953e-05
	5.000000000000000e+00
	0.000000000000000e+00
	2.051772575560953e-05

 50153	1.480000000000001e-01
	1.480000000000001e-01
	1.480000000000001e-01
	-2.065256232496732e-05
	5.000000000000000e+00
	0.000000000000000e+00
	2.065256232496732e-05

 50154	1.490000000000001e-01
	1.490000000000001e-01
	1.490000000000001e-01
	-2.078733595380772e-05
	5.000000000000000e+00
	0.000000000000000e+00
	2.078733595380772e-05

 50155	1.500000000000001e-01
	1.500000000000001e-01
	1.500000000000001e-01
	-2.092204666408887e-05
	5.000000000000000e+00
	0.000000000000000e+00
	2.092204666408887e-05

 50156	1.510000000000001e-01
	1.510000000000001e-01
	1.510000000000001e-01
	-2.105669447780359e-05
	5.000000000000000e+00
	0.000000000000000e+00
	2.105669447780359e-05

 50157	1.520000000000001e-01
	1.520000000000001e-01
	1.520000000000001e-01
	-2.119127941689961e-05
	5.000000000000000e+00
	0.000000000000000e+00
	2.119127941689961e-05

 50158	1.530000000000001e-01
	1.530000000000001e-01
	1.530000000000001e-01
	-2.132580150332464e-05
	5.000000000000000e+00
	0.000000000000000e+00
	2.132580150332464e-05

 50159	1.540000000000001e-01
	1.540000000000001e-01
	1.540000000000001e-01
	-2.146026075901600e-05
	5.000000000000000e+00
	0.000000000000000e+00
	2.146026075901600e-05

 50160	1.550000000000001e-01
	1.550000000000001e-01
	1.550000000000001e-01
	-2.159465720591100e-05
	5.000000000000000e+00
	0.000000000000000e+00
	2.159465720591100e-05

 50161	1.560000000000001e-01
	1.560000000000001e-01
	1.560000000000001e-01
	-2.172899086591920e-05
	5.000000000000000e+00
	0.000000000000000e+00
	2.172899086591920e-05

 50162	1.570000000000001e-01
	1.570000000000001e-01
	1.570000000000001e-01
	-2.186326176096404e-05
	5.000000000000000e+00
	0.000000000000000e+00
	2.186326176096404e-05

 50163	1.580000000000001e-01
	1.580000000000001e-01
	1.580000000000001e-01
	-2.199746991291343e-05
	5.000000000000000e+00
	0.000000000000000e+00
	2.199746991291343e-05

 50164	1.590000000000001e-01
	1.590000000000001e-01
	1.590000000000001e-01
	-2.213161534369776e-05
	5.000000000000000e+00
	0.000000000000000e+00
	2.213161534369776e-05

 50165	1.600000000000001e-01
	1.600000000000001e-01
	1.600000000000001e-01
	-2.226569807516413e-05
	5.000000000000000e+00
	0.000000000000000e+00
	2.226569807516413e-05

 50166	1.610000000000001e-01
	1.610000000000001e-01
	1.610000000000001e-01
	-2.239971812919087e-05
	5.000000000000000e+00
	0.000000000000000e+00
	2.239971812919087e-05

 50167	1.620000000000001e-01
	1.620000000000001e-01
	1.620000000000001e-01
	-2.253367552762855e-05
	5.000000000000000e+00
	0.000000000000000e+00
	2.253367552762855e-05

 50168	1.630000000000001e-01
	1.630000000000001e-01
	1.630000000000001e-01
	-2.266757029234512e-05
	5.000000000000000e+00
	0.000000000000000e+00
	2.266757029234512e-05

 50169	1.640000000000001e-01
	1.640000000000001e-01
	1.640000000000001e-01
	-2.280140244516338e-05
	5.000000000000000e+00
	0.000000000000000e+00
	2.280140244516338e-05

 50170	1.650000000000001e-01
	1.650000000000001e-01
	1.650000000000001e-01
	-2.293517200791656e-05
	5.000000000000000e+00
	0.000000000000000e+00
	2.293517200791656e-05

 50171	1.660000000000001e-01
	1.660000000000001e-01
	1.660000000000001e-01
	-2.306887900242055e-05
	5.000000000000000e+00
	0.000000000000000e+00
	2.306887900242055e-05

 50172	1.670000000000001e-01
	1.670000000000001e-01
	1.670000000000001e-01
	-2.320252345048082e-05
	5.000000000000000e+00
	0.000000000000000e+00
	2.320252345048082e-05

 50173	1.680000000000001e-01
	1.680000000000001e-01
	1.680000000000001e-01
	-2.333610537389938e-05
	5.000000000000000e+00
	0.000000000000000e+00
	2.333610537389938e-05

 50174	1.690000000000001e-01
	1.690000000000001e-01
	1.690000000000001e-01
	-2.346962479446782e-05
	5.000000000000000e+00
	0.000000000000000e+00
	2.346962479446782e-05

 50175	1.700000000000001e-01
	1.700000000000001e-01
	1.700000000000001e-01
	-2.360308173396386e-05
	5.000000000000000e+00
	0.000000000000000e+00
	2.360308173396386e-05

 50176	1.710000000000001e-01
	1.710000000000001e-01
	1.710000000000001e-01
	-2.373647621414787e-05
	5.000000000000000e+00
	0.000000000000000e+00
	2.373647621414787e-05

 50177	1.720000000000001e-01
	1.720000000000001e-01
	1.720000000000001e-01
	-2.386980825678717e-05
	5.000000000000000e+00
	0.000000000000000e+00
	2.386980825678717e-05

 50178	1.730000000000001e-01
	1.730000000000001e-01
	1.730000000000001e-01
	-2.400307788362130e-05
	5.000000000000000e+00
	0.000000000000000e+00
	2.400307788362130e-05

 50179	1.740000000000001e-01
	1.740000000000001e-01
	1.740000000000001e-01
	-2.413628511640370e-05
	5.000000000000000e+00
	0.000000000000000e+00
	2.413628511640370e-05

 50180	1.750000000000001e-01
	1.750000000000001e-01
	1.750000000000001e-01
	-2.426942997683229e-05