Title: * qw-gnetlist -gspice-sdb -o mosfet.cir mosfet.sch
Date: Fri Mar 26 20:38:31  2010
Plotname: DC transfer characteristic
Flags: real
No. Variables: 7
No. Points: 60006
Variables:
	0	v-sweep	voltage
	1	v(1)	voltage
	2	vds	voltage
	3	i(vds)	current
	4	vgs	voltage
	5	i(vgs)	current
	6	i(vids)	current
Values:
 0	0.000000000000000e+00
	0.000000000000000e+00
	0.000000000000000e+00
	-1.295841483028054e-26
	0.000000000000000e+00
	0.000000000000000e+00
	1.295841483028054e-26

 1	1.000000000000000e-03
	1.000000000000000e-03
	1.000000000000000e-03
	-4.969122362934522e-12
	0.000000000000000e+00
	0.000000000000000e+00
	4.969122362934522e-12

 2	2.000000000000000e-03
	2.000000000000000e-03
	2.000000000000000e-03
	-9.696528681987088e-12
	0.000000000000000e+00
	0.000000000000000e+00
	9.696528681987088e-12

 3	3.000000000000000e-03
	3.000000000000000e-03
	3.000000000000000e-03
	-1.436312771193118e-11
	0.000000000000000e+00
	0.000000000000000e+00
	1.436312771193118e-11

 4	4.000000000000000e-03
	4.000000000000000e-03
	4.000000000000000e-03
	-1.890966983691955e-11
	0.000000000000000e+00
	0.000000000000000e+00
	1.890966983691955e-11

 5	5.000000000000000e-03
	5.000000000000000e-03
	5.000000000000000e-03
	-2.333700008412543e-11
	0.000000000000000e+00
	0.000000000000000e+00
	2.333700008412543e-11

 6	6.000000000000000e-03
	6.000000000000000e-03
	6.000000000000000e-03
	-2.764601134824796e-11
	0.000000000000000e+00
	0.000000000000000e+00
	2.764601134824796e-11

 7	7.000000000000000e-03
	7.000000000000000e-03
	7.000000000000000e-03
	-3.183764449993243e-11
	0.000000000000000e+00
	0.000000000000000e+00
	3.183764449993243e-11

 8	8.000000000000000e-03
	8.000000000000000e-03
	8.000000000000000e-03
	-3.591289223468797e-11
	0.000000000000000e+00
	0.000000000000000e+00
	3.591289223468797e-11

 9	9.000000000000001e-03
	9.000000000000001e-03
	9.000000000000001e-03
	-3.987280102445145e-11
	0.000000000000000e+00
	0.000000000000000e+00
	3.987280102445145e-11

 10	1.000000000000000e-02
	1.000000000000000e-02
	1.000000000000000e-02
	-4.371847220178970e-11
	0.000000000000000e+00
	0.000000000000000e+00
	4.371847220178970e-11

 11	1.100000000000000e-02
	1.100000000000000e-02
	1.100000000000000e-02
	-4.745106326094206e-11
	0.000000000000000e+00
	0.000000000000000e+00
	4.745106326094206e-11

 12	1.200000000000000e-02
	1.200000000000000e-02
	1.200000000000000e-02
	-5.107179371251214e-11
	0.000000000000000e+00
	0.000000000000000e+00
	5.107179371251214e-11

 13	1.300000000000000e-02
	1.300000000000000e-02
	1.300000000000000e-02
	-5.458194009613782e-11
	0.000000000000000e+00
	0.000000000000000e+00
	5.458194009613782e-11

 14	1.400000000000001e-02
	1.400000000000001e-02
	1.400000000000001e-02
	-5.798284682251298e-11
	0.000000000000000e+00
	0.000000000000000e+00
	5.798284682251298e-11

 15	1.500000000000001e-02
	1.500000000000001e-02
	1.500000000000001e-02
	-6.127591706608926e-11
	0.000000000000000e+00
	0.000000000000000e+00
	6.127591706608926e-11

 16	1.600000000000001e-02
	1.600000000000001e-02
	1.600000000000001e-02
	-6.446262187237428e-11
	0.000000000000000e+00
	0.000000000000000e+00
	6.446262187237428e-11

 17	1.700000000000001e-02
	1.700000000000001e-02
	1.700000000000001e-02
	-6.754449690532516e-11
	0.000000000000000e+00
	0.000000000000000e+00
	6.754449690532516e-11

 18	1.800000000000001e-02
	1.800000000000001e-02
	1.800000000000001e-02
	-7.052314678415716e-11
	0.000000000000000e+00
	0.000000000000000e+00
	7.052314678415716e-11

 19	1.900000000000001e-02
	1.900000000000001e-02
	1.900000000000001e-02
	-7.340023857813072e-11
	0.000000000000000e+00
	0.000000000000000e+00
	7.340023857813072e-11

 20	2.000000000000001e-02
	2.000000000000001e-02
	2.000000000000001e-02
	-7.617750874544527e-11
	0.000000000000000e+00
	0.000000000000000e+00
	7.617750874544527e-11

 21	2.100000000000001e-02
	2.100000000000001e-02
	2.100000000000001e-02
	-7.885675836274975e-11
	0.000000000000000e+00
	0.000000000000000e+00
	7.885675836274975e-11

 22	2.200000000000001e-02
	2.200000000000001e-02
	2.200000000000001e-02
	-8.143985485986605e-11
	0.000000000000000e+00
	0.000000000000000e+00
	8.143985485986605e-11

 23	2.300000000000001e-02
	2.300000000000001e-02
	2.300000000000001e-02
	-8.392872551457597e-11
	0.000000000000000e+00
	0.000000000000000e+00
	8.392872551457597e-11

 24	2.400000000000001e-02
	2.400000000000001e-02
	2.400000000000001e-02
	-8.632536309047256e-11
	0.000000000000000e+00
	0.000000000000000e+00
	8.632536309047256e-11

 25	2.500000000000002e-02
	2.500000000000002e-02
	2.500000000000002e-02
	-8.863181282653398e-11
	0.000000000000000e+00
	0.000000000000000e+00
	8.863181282653398e-11

 26	2.600000000000002e-02
	2.600000000000002e-02
	2.600000000000002e-02
	-9.085018067706008e-11
	0.000000000000000e+00
	0.000000000000000e+00
	9.085018067706008e-11

 27	2.700000000000002e-02
	2.700000000000002e-02
	2.700000000000002e-02
	-9.298262160228887e-11
	0.000000000000000e+00
	0.000000000000000e+00
	9.298262160228887e-11

 28	2.800000000000002e-02
	2.800000000000002e-02
	2.800000000000002e-02
	-9.503134043575834e-11
	0.000000000000000e+00
	0.000000000000000e+00
	9.503134043575834e-11

 29	2.900000000000002e-02
	2.900000000000002e-02
	2.900000000000002e-02
	-9.699857844019943e-11
	0.000000000000000e+00
	0.000000000000000e+00
	9.699857844019943e-11

 30	3.000000000000002e-02
	3.000000000000002e-02
	3.000000000000002e-02
	-9.888662458323871e-11
	0.000000000000000e+00
	0.000000000000000e+00
	9.888662458323871e-11

 31	3.100000000000002e-02
	3.100000000000002e-02
	3.100000000000002e-02
	-1.006977912512697e-10
	0.000000000000000e+00
	0.000000000000000e+00
	1.006977912512697e-10

 32	3.200000000000002e-02
	3.200000000000002e-02
	3.200000000000002e-02
	-1.024344229230700e-10
	0.000000000000000e+00
	0.000000000000000e+00
	1.024344229230700e-10

 33	3.300000000000002e-02
	3.300000000000002e-02
	3.300000000000002e-02
	-1.040988831593759e-10
	0.000000000000000e+00
	0.000000000000000e+00
	1.040988831593759e-10

 34	3.400000000000002e-02
	3.400000000000002e-02
	3.400000000000002e-02
	-1.056935459292641e-10
	0.000000000000000e+00
	0.000000000000000e+00
	1.056935459292641e-10

 35	3.500000000000002e-02
	3.500000000000002e-02
	3.500000000000002e-02
	-1.072207947427906e-10
	0.000000000000000e+00
	0.000000000000000e+00
	1.072207947427906e-10

 36	3.600000000000003e-02
	3.600000000000003e-02
	3.600000000000003e-02
	-1.086830165794583e-10
	0.000000000000000e+00
	0.000000000000000e+00
	1.086830165794583e-10

 37	3.700000000000003e-02
	3.700000000000003e-02
	3.700000000000003e-02
	-1.100825888777912e-10
	0.000000000000000e+00
	0.000000000000000e+00
	1.100825888777912e-10

 38	3.800000000000003e-02
	3.800000000000003e-02
	3.800000000000003e-02
	-1.114218778006104e-10
	0.000000000000000e+00
	0.000000000000000e+00
	1.114218778006104e-10

 39	3.900000000000003e-02
	3.900000000000003e-02
	3.900000000000003e-02
	-1.127032286940555e-10
	0.000000000000000e+00
	0.000000000000000e+00
	1.127032286940555e-10

 40	4.000000000000003e-02
	4.000000000000003e-02
	4.000000000000003e-02
	-1.139289600160520e-10
	0.000000000000000e+00
	0.000000000000000e+00
	1.139289600160520e-10

 41	4.100000000000003e-02
	4.100000000000003e-02
	4.100000000000003e-02
	-1.151013668057588e-10
	0.000000000000000e+00
	0.000000000000000e+00
	1.151013668057588e-10

 42	4.200000000000003e-02
	4.200000000000003e-02
	4.200000000000003e-02
	-1.162226955300771e-10
	0.000000000000000e+00
	0.000000000000000e+00
	1.162226955300771e-10

 43	4.300000000000003e-02
	4.300000000000003e-02
	4.300000000000003e-02
	-1.172951631656094e-10
	0.000000000000000e+00
	0.000000000000000e+00
	1.172951631656094e-10

 44	4.400000000000003e-02
	4.400000000000003e-02
	4.400000000000003e-02
	-1.183209294430831e-10
	0.000000000000000e+00
	0.000000000000000e+00
	1.183209294430831e-10

 45	4.500000000000003e-02
	4.500000000000003e-02
	4.500000000000003e-02
	-1.193021063883304e-10
	0.000000000000000e+00
	0.000000000000000e+00
	1.193021063883304e-10

 46	4.600000000000003e-02
	4.600000000000003e-02
	4.600000000000003e-02
	-1.202407505160319e-10
	0.000000000000000e+00
	0.000000000000000e+00
	1.202407505160319e-10

 47	4.700000000000003e-02
	4.700000000000003e-02
	4.700000000000003e-02
	-1.211388636970789e-10
	0.000000000000000e+00
	0.000000000000000e+00
	1.211388636970789e-10

 48	4.800000000000004e-02
	4.800000000000004e-02
	4.800000000000004e-02
	-1.219983810155090e-10
	0.000000000000000e+00
	0.000000000000000e+00
	1.219983810155090e-10

 49	4.900000000000004e-02
	4.900000000000004e-02
	4.900000000000004e-02
	-1.228211785747613e-10
	0.000000000000000e+00
	0.000000000000000e+00
	1.228211785747613e-10

 50	5.000000000000004e-02
	5.000000000000004e-02
	5.000000000000004e-02
	-1.236090639566978e-10
	0.000000000000000e+00
	0.000000000000000e+00
	1.236090639566978e-10

 51	5.100000000000004e-02
	5.100000000000004e-02
	5.100000000000004e-02
	-1.243637814257736e-10
	0.000000000000000e+00
	0.000000000000000e+00
	1.243637814257736e-10

 52	5.200000000000004e-02
	5.200000000000004e-02
	5.200000000000004e-02
	-1.250870084595901e-10
	0.000000000000000e+00
	0.000000000000000e+00
	1.250870084595901e-10

 53	5.300000000000004e-02
	5.300000000000004e-02
	5.300000000000004e-02
	-1.257803548815328e-10
	0.000000000000000e+00
	0.000000000000000e+00
	1.257803548815328e-10

 54	5.400000000000004e-02
	5.400000000000004e-02
	5.400000000000004e-02
	-1.264453576566016e-10
	0.000000000000000e+00
	0.000000000000000e+00
	1.264453576566016e-10

 55	5.500000000000004e-02
	5.500000000000004e-02
	5.500000000000004e-02
	-1.270834982386448e-10
	0.000000000000000e+00
	0.000000000000000e+00
	1.270834982386448e-10

 56	5.600000000000004e-02
	5.600000000000004e-02
	5.600000000000004e-02
	-1.276961817536781e-10
	0.000000000000000e+00
	0.000000000000000e+00
	1.276961817536781e-10

 57	5.700000000000004e-02
	5.700000000000004e-02
	5.700000000000004e-02
	-1.282847543471188e-10
	0.000000000000000e+00
	0.000000000000000e+00
	1.282847543471188e-10

 58	5.800000000000004e-02
	5.800000000000004e-02
	5.800000000000004e-02
	-1.288504945101687e-10
	0.000000000000000e+00
	0.000000000000000e+00
	1.288504945101687e-10

 59	5.900000000000005e-02
	5.900000000000005e-02
	5.900000000000005e-02
	-1.293946234881549e-10
	0.000000000000000e+00
	0.000000000000000e+00
	1.293946234881549e-10

 60	6.000000000000005e-02
	6.000000000000005e-02
	6.000000000000005e-02
	-1.299182966069123e-10
	0.000000000000000e+00
	0.000000000000000e+00
	1.299182966069123e-10

 61	6.100000000000005e-02
	6.100000000000005e-02
	6.100000000000005e-02
	-1.304226136811248e-10
	0.000000000000000e+00
	0.000000000000000e+00
	1.304226136811248e-10

 62	6.200000000000005e-02
	6.200000000000005e-02
	6.200000000000005e-02
	-1.309086190143249e-10
	0.000000000000000e+00
	0.000000000000000e+00
	1.309086190143249e-10

 63	6.300000000000004e-02
	6.300000000000004e-02
	6.300000000000004e-02
	-1.313773031336174e-10
	0.000000000000000e+00
	0.000000000000000e+00
	1.313773031336174e-10

 64	6.400000000000004e-02
	6.400000000000004e-02
	6.400000000000004e-02
	-1.318295941160619e-10
	0.000000000000000e+00
	0.000000000000000e+00
	1.318295941160619e-10

 65	6.500000000000004e-02
	6.500000000000004e-02
	6.500000000000004e-02
	-1.322663853442485e-10
	0.000000000000000e+00
	0.000000000000000e+00
	1.322663853442485e-10

 66	6.600000000000004e-02
	6.600000000000004e-02
	6.600000000000004e-02
	-1.326885112201692e-10
	0.000000000000000e+00
	0.000000000000000e+00
	1.326885112201692e-10

 67	6.700000000000005e-02
	6.700000000000005e-02
	6.700000000000005e-02
	-1.330967627777291e-10
	0.000000000000000e+00
	0.000000000000000e+00
	1.330967627777291e-10

 68	6.800000000000005e-02
	6.800000000000005e-02
	6.800000000000005e-02
	-1.334918859480227e-10
	0.000000000000000e+00
	0.000000000000000e+00
	1.334918859480227e-10

 69	6.900000000000005e-02
	6.900000000000005e-02
	6.900000000000005e-02
	-1.338745919676754e-10
	0.000000000000000e+00
	0.000000000000000e+00
	1.338745919676754e-10

 70	7.000000000000005e-02
	7.000000000000005e-02
	7.000000000000005e-02
	-1.342455435010548e-10
	0.000000000000000e+00
	0.000000000000000e+00
	1.342455435010548e-10

 71	7.100000000000005e-02
	7.100000000000005e-02
	7.100000000000005e-02
	-1.346053685180593e-10
	0.000000000000000e+00
	0.000000000000000e+00
	1.346053685180593e-10

 72	7.200000000000005e-02
	7.200000000000005e-02
	7.200000000000005e-02
	-1.349546637635646e-10
	0.000000000000000e+00
	0.000000000000000e+00
	1.349546637635646e-10

 73	7.300000000000005e-02
	7.300000000000005e-02
	7.300000000000005e-02
	-1.352939860838065e-10
	0.000000000000000e+00
	0.000000000000000e+00
	1.352939860838065e-10

 74	7.400000000000005e-02
	7.400000000000005e-02
	7.400000000000005e-02
	-1.356238593652748e-10
	0.000000000000000e+00
	0.000000000000000e+00
	1.356238593652748e-10

 75	7.500000000000005e-02
	7.500000000000005e-02
	7.500000000000005e-02
	-1.359447884125009e-10
	0.000000000000000e+00
	0.000000000000000e+00
	1.359447884125009e-10

 76	7.600000000000005e-02
	7.600000000000005e-02
	7.600000000000005e-02
	-1.362572381313765e-10
	0.000000000000000e+00
	0.000000000000000e+00
	1.362572381313765e-10

 77	7.700000000000005e-02
	7.700000000000005e-02
	7.700000000000005e-02
	-1.365616491416644e-10
	0.000000000000000e+00
	0.000000000000000e+00
	1.365616491416644e-10

 78	7.800000000000006e-02
	7.800000000000006e-02
	7.800000000000006e-02
	-1.368584395117223e-10
	0.000000000000000e+00
	0.000000000000000e+00
	1.368584395117223e-10

 79	7.900000000000006e-02
	7.900000000000006e-02
	7.900000000000006e-02
	-1.371480012890558e-10
	0.000000000000000e+00
	0.000000000000000e+00
	1.371480012890558e-10

 80	8.000000000000006e-02
	8.000000000000006e-02
	8.000000000000006e-02
	-1.374307057044888e-10
	0.000000000000000e+00
	0.000000000000000e+00
	1.374307057044888e-10

 81	8.100000000000006e-02
	8.100000000000006e-02
	8.100000000000006e-02
	-1.377068979679930e-10
	0.000000000000000e+00
	0.000000000000000e+00
	1.377068979679930e-10

 82	8.200000000000006e-02
	8.200000000000006e-02
	8.200000000000006e-02
	-1.379769111464757e-10
	0.000000000000000e+00
	0.000000000000000e+00
	1.379769111464757e-10

 83	8.300000000000006e-02
	8.300000000000006e-02
	8.300000000000006e-02
	-1.382410557554392e-10
	0.000000000000000e+00
	0.000000000000000e+00
	1.382410557554392e-10

 84	8.400000000000006e-02
	8.400000000000006e-02
	8.400000000000006e-02
	-1.384996214937040e-10
	0.000000000000000e+00
	0.000000000000000e+00
	1.384996214937040e-10

 85	8.500000000000006e-02
	8.500000000000006e-02
	8.500000000000006e-02
	-1.387528893864731e-10
	0.000000000000000e+00
	0.000000000000000e+00
	1.387528893864731e-10

 86	8.600000000000006e-02
	8.600000000000006e-02
	8.600000000000006e-02
	-1.390011127033741e-10
	0.000000000000000e+00
	0.000000000000000e+00
	1.390011127033741e-10

 87	8.700000000000006e-02
	8.700000000000006e-02
	8.700000000000006e-02
	-1.392445447140345e-10
	0.000000000000000e+00
	0.000000000000000e+00
	1.392445447140345e-10

 88	8.800000000000006e-02
	8.800000000000006e-02
	8.800000000000006e-02
	-1.394834126672295e-10
	0.000000000000000e+00
	0.000000000000000e+00
	1.394834126672295e-10

 89	8.900000000000007e-02
	8.900000000000007e-02
	8.900000000000007e-02
	-1.397179386075642e-10
	0.000000000000000e+00
	0.000000000000000e+00
	1.397179386075642e-10

 90	9.000000000000007e-02
	9.000000000000007e-02
	9.000000000000007e-02
	-1.399483289671322e-10
	0.000000000000000e+00
	0.000000000000000e+00
	1.399483289671322e-10

 91	9.100000000000007e-02
	9.100000000000007e-02
	9.100000000000007e-02
	-1.401747780349627e-10
	0.000000000000000e+00
	0.000000000000000e+00
	1.401747780349627e-10

 92	9.200000000000007e-02
	9.200000000000007e-02
	9.200000000000007e-02
	-1.403974748959147e-10
	0.000000000000000e+00
	0.000000000000000e+00
	1.403974748959147e-10

 93	9.300000000000007e-02
	9.300000000000007e-02
	9.300000000000007e-02
	-1.406165826139949e-10
	0.000000000000000e+00
	0.000000000000000e+00
	1.406165826139949e-10

 94	9.400000000000007e-02
	9.400000000000007e-02
	9.400000000000007e-02
	-1.408322833351683e-10
	0.000000000000000e+00
	0.000000000000000e+00
	1.408322833351683e-10

 95	9.500000000000007e-02
	9.500000000000007e-02
	9.500000000000007e-02
	-1.410447158373129e-10
	0.000000000000000e+00
	0.000000000000000e+00
	1.410447158373129e-10

 96	9.600000000000007e-02
	9.600000000000007e-02
	9.600000000000007e-02
	-1.412540466538825e-10
	0.000000000000000e+00
	0.000000000000000e+00
	1.412540466538825e-10

 97	9.700000000000007e-02
	9.700000000000007e-02
	9.700000000000007e-02
	-1.414604058891378e-10
	0.000000000000000e+00
	0.000000000000000e+00
	1.414604058891378e-10

 98	9.800000000000007e-02
	9.800000000000007e-02
	9.800000000000007e-02
	-1.416639167084455e-10
	0.000000000000000e+00
	0.000000000000000e+00
	1.416639167084455e-10

 99	9.900000000000007e-02
	9.900000000000007e-02
	9.900000000000007e-02
	-1.418647213591306e-10
	0.000000000000000e+00
	0.000000000000000e+00
	1.418647213591306e-10

 100	1.000000000000001e-01
	1.000000000000001e-01
	1.000000000000001e-01
	-1.420629343329427e-10
	0.000000000000000e+00
	0.000000000000000e+00
	1.420629343329427e-10

 101	1.010000000000001e-01
	1.010000000000001e-01
	1.010000000000001e-01
	-1.422586666521841e-10
	0.000000000000000e+00
	0.000000000000000e+00
	1.422586666521841e-10

 102	1.020000000000001e-01
	1.020000000000001e-01
	1.020000000000001e-01
	-1.424520189308165e-10
	0.000000000000000e+00
	0.000000000000000e+00
	1.424520189308165e-10

 103	1.030000000000001e-01
	1.030000000000001e-01
	1.030000000000001e-01
	-1.426431021911423e-10
	0.000000000000000e+00
	0.000000000000000e+00
	1.426431021911423e-10

 104	1.040000000000001e-01
	1.040000000000001e-01
	1.040000000000001e-01
	-1.428320066387823e-10
	0.000000000000000e+00
	0.000000000000000e+00
	1.428320066387823e-10

 105	1.050000000000001e-01
	1.050000000000001e-01
	1.050000000000001e-01
	-1.430188259488041e-10
	0.000000000000000e+00
	0.000000000000000e+00
	1.430188259488041e-10

 106	1.060000000000001e-01
	1.060000000000001e-01
	1.060000000000001e-01
	-1.432036503268286e-10
	0.000000000000000e+00
	0.000000000000000e+00
	1.432036503268286e-10

 107	1.070000000000001e-01
	1.070000000000001e-01
	1.070000000000001e-01
	-1.433865595701356e-10
	0.000000000000000e+00
	0.000000000000000e+00
	1.433865595701356e-10

 108	1.080000000000001e-01
	1.080000000000001e-01
	1.080000000000001e-01
	-1.435676265371111e-10
	0.000000000000000e+00
	0.000000000000000e+00
	1.435676265371111e-10

 109	1.090000000000001e-01
	1.090000000000001e-01
	1.090000000000001e-01
	-1.437469344944819e-10
	0.000000000000000e+00
	0.000000000000000e+00
	1.437469344944819e-10

 110	1.100000000000001e-01
	1.100000000000001e-01
	1.100000000000001e-01
	-1.439245563006342e-10
	0.000000000000000e+00
	0.000000000000000e+00
	1.439245563006342e-10

 111	1.110000000000001e-01
	1.110000000000001e-01
	1.110000000000001e-01
	-1.441005474667190e-10
	0.000000000000000e+00
	0.000000000000000e+00
	1.441005474667190e-10

 112	1.120000000000001e-01
	1.120000000000001e-01
	1.120000000000001e-01
	-1.442749773816754e-10
	0.000000000000000e+00
	0.000000000000000e+00
	1.442749773816754e-10

 113	1.130000000000001e-01
	1.130000000000001e-01
	1.130000000000001e-01
	-1.444479119649955e-10
	0.000000000000000e+00
	0.000000000000000e+00
	1.444479119649955e-10

 114	1.140000000000001e-01
	1.140000000000001e-01
	1.140000000000001e-01
	-1.446194032583836e-10
	0.000000000000000e+00
	0.000000000000000e+00
	1.446194032583836e-10

 115	1.150000000000001e-01
	1.150000000000001e-01
	1.150000000000001e-01
	-1.447895102424379e-10
	0.000000000000000e+00
	0.000000000000000e+00
	1.447895102424379e-10

 116	1.160000000000001e-01
	1.160000000000001e-01
	1.160000000000001e-01
	-1.449582849588626e-10
	0.000000000000000e+00
	0.000000000000000e+00
	1.449582849588626e-10

 117	1.170000000000001e-01
	1.170000000000001e-01
	1.170000000000001e-01
	-1.451257759799152e-10
	0.000000000000000e+00
	0.000000000000000e+00
	1.451257759799152e-10

 118	1.180000000000001e-01
	1.180000000000001e-01
	1.180000000000001e-01
	-1.452920353472997e-10
	0.000000000000000e+00
	0.000000000000000e+00
	1.452920353472997e-10

 119	1.190000000000001e-01
	1.190000000000001e-01
	1.190000000000001e-01
	-1.454571116332737e-10
	0.000000000000000e+00
	0.000000000000000e+00
	1.454571116332737e-10

 120	1.200000000000001e-01
	1.200000000000001e-01
	1.200000000000001e-01
	-1.456210360628596e-10
	0.000000000000000e+00
	0.000000000000000e+00
	1.456210360628596e-10

 121	1.210000000000001e-01
	1.210000000000001e-01
	1.210000000000001e-01
	-1.457838641472087e-10
	0.000000000000000e+00
	0.000000000000000e+00
	1.457838641472087e-10

 122	1.220000000000001e-01
	1.220000000000001e-01
	1.220000000000001e-01
	-1.459456236418966e-10
	0.000000000000000e+00
	0.000000000000000e+00
	1.459456236418966e-10

 123	1.230000000000001e-01
	1.230000000000001e-01
	1.230000000000001e-01
	-1.461063631191806e-10
	0.000000000000000e+00
	0.000000000000000e+00
	1.461063631191806e-10

 124	1.240000000000001e-01
	1.240000000000001e-01
	1.240000000000001e-01
	-1.462661172735302e-10
	0.000000000000000e+00
	0.000000000000000e+00
	1.462661172735302e-10

 125	1.250000000000001e-01
	1.250000000000001e-01
	1.250000000000001e-01
	-1.464249173299681e-10
	0.000000000000000e+00
	0.000000000000000e+00
	1.464249173299681e-10

 126	1.260000000000001e-01
	1.260000000000001e-01
	1.260000000000001e-01
	-1.465827979829637e-10
	0.000000000000000e+00
	0.000000000000000e+00
	1.465827979829637e-10

 127	1.270000000000001e-01
	1.270000000000001e-01
	1.270000000000001e-01
	-1.467397904575396e-10
	0.000000000000000e+00
	0.000000000000000e+00
	1.467397904575396e-10

 128	1.280000000000001e-01
	1.280000000000001e-01
	1.280000000000001e-01
	-1.468959294481653e-10
	0.000000000000000e+00
	0.000000000000000e+00
	1.468959294481653e-10

 129	1.290000000000001e-01
	1.290000000000001e-01
	1.290000000000001e-01
	-1.470512357715226e-10
	0.000000000000000e+00
	0.000000000000000e+00
	1.470512357715226e-10

 130	1.300000000000001e-01
	1.300000000000001e-01
	1.300000000000001e-01
	-1.472057545304217e-10
	0.000000000000000e+00
	0.000000000000000e+00
	1.472057545304217e-10

 131	1.310000000000001e-01
	1.310000000000001e-01
	1.310000000000001e-01
	-1.473594961332036e-10
	0.000000000000000e+00
	0.000000000000000e+00
	1.473594961332036e-10

 132	1.320000000000001e-01
	1.320000000000001e-01
	1.320000000000001e-01
	-1.475124813965500e-10
	0.000000000000000e+00
	0.000000000000000e+00
	1.475124813965500e-10

 133	1.330000000000001e-01
	1.330000000000001e-01
	1.330000000000001e-01
	-1.476647554232713e-10
	0.000000000000000e+00
	0.000000000000000e+00
	1.476647554232713e-10

 134	1.340000000000001e-01
	1.340000000000001e-01
	1.340000000000001e-01
	-1.478163286217082e-10
	0.000000000000000e+00
	0.000000000000000e+00
	1.478163286217082e-10

 135	1.350000000000001e-01
	1.350000000000001e-01
	1.350000000000001e-01
	-1.479672287474365e-10
	0.000000000000000e+00
	0.000000000000000e+00
	1.479672287474365e-10

 136	1.360000000000001e-01
	1.360000000000001e-01
	1.360000000000001e-01
	-1.481174766171378e-10
	0.000000000000000e+00
	0.000000000000000e+00
	1.481174766171378e-10

 137	1.370000000000001e-01
	1.370000000000001e-01
	1.370000000000001e-01
	-1.482670895780469e-10
	0.000000000000000e+00
	0.000000000000000e+00
	1.482670895780469e-10

 138	1.380000000000001e-01
	1.380000000000001e-01
	1.380000000000001e-01
	-1.484160953857394e-10
	0.000000000000000e+00
	0.000000000000000e+00
	1.484160953857394e-10

 139	1.390000000000001e-01
	1.390000000000001e-01
	1.390000000000001e-01
	-1.485645009791092e-10
	0.000000000000000e+00
	0.000000000000000e+00
	1.485645009791092e-10

 140	1.400000000000001e-01
	1.400000000000001e-01
	1.400000000000001e-01
	-1.487123341137320e-10
	0.000000000000000e+00
	0.000000000000000e+00
	1.487123341137320e-10

 141	1.410000000000001e-01
	1.410000000000001e-01
	1.410000000000001e-01
	-1.488596156062894e-10
	0.000000000000000e+00
	0.000000000000000e+00
	1.488596156062894e-10

 142	1.420000000000001e-01
	1.420000000000001e-01
	1.420000000000001e-01
	-1.490063662734631e-10
	0.000000000000000e+00
	0.000000000000000e+00
	1.490063662734631e-10

 143	1.430000000000001e-01
	1.430000000000001e-01
	1.430000000000001e-01
	-1.491525791763593e-10
	0.000000000000000e+00
	0.000000000000000e+00
	1.491525791763593e-10

 144	1.440000000000001e-01
	1.440000000000001e-01
	1.440000000000001e-01
	-1.492982890094474e-10
	0.000000000000000e+00
	0.000000000000000e+00
	1.492982890094474e-10

 145	1.450000000000001e-01
	1.450000000000001e-01
	1.450000000000001e-01
	-1.494435165894092e-10
	0.000000000000000e+00
	0.000000000000000e+00
	1.494435165894092e-10

 146	1.460000000000001e-01
	1.460000000000001e-01
	1.460000000000001e-01
	-1.495882584467978e-10
	0.000000000000000e+00
	0.000000000000000e+00
	1.495882584467978e-10

 147	1.470000000000001e-01
	1.470000000000001e-01
	1.470000000000001e-01
	-1.497325527455295e-10
	0.000000000000000e+00
	0.000000000000000e+00
	1.497325527455295e-10

 148	1.480000000000001e-01
	1.480000000000001e-01
	1.480000000000001e-01
	-1.498763856078167e-10
	0.000000000000000e+00
	0.000000000000000e+00
	1.498763856078167e-10

 149	1.490000000000001e-01
	1.490000000000001e-01
	1.490000000000001e-01
	-1.500197882586818e-10
	0.000000000000000e+00
	0.000000000000000e+00
	1.500197882586818e-10

 150	1.500000000000001e-01
	1.500000000000001e-01
	1.500000000000001e-01
	-1.501627711064657e-10
	0.000000000000000e+00
	0.000000000000000e+00
	1.501627711064657e-10

 151	1.510000000000001e-01
	1.510000000000001e-01
	1.510000000000001e-01
	-1.503053376206154e-10
	0.000000000000000e+00
	0.000000000000000e+00
	1.503053376206154e-10

 152	1.520000000000001e-01
	1.520000000000001e-01
	1.520000000000001e-01
	-1.504475086178125e-10
	0.000000000000000e+00
	0.000000000000000e+00
	1.504475086178125e-10

 153	1.530000000000001e-01
	1.530000000000001e-01
	1.530000000000001e-01
	-1.505892979758450e-10
	0.000000000000000e+00
	0.000000000000000e+00
	1.505892979758450e-10

 154	1.540000000000001e-01
	1.540000000000001e-01
	1.540000000000001e-01
	-1.507307091641596e-10
	0.000000000000000e+00
	0.000000000000000e+00
	1.507307091641596e-10

 155	1.550000000000001e-01
	1.550000000000001e-01
	1.550000000000001e-01
	-1.508717525910974e-10
	0.000000000000000e+00
	0.000000000000000e+00
	1.508717525910974e-10

 156	1.560000000000001e-01
	1.560000000000001e-01
	1.560000000000001e-01
	-1.510124456038930e-10
	0.000000000000000e+00
	0.000000000000000e+00
	1.510124456038930e-10

 157	1.570000000000001e-01
	1.570000000000001e-01
	1.570000000000001e-01
	-1.511527951414404e-10
	0.000000000000000e+00
	0.000000000000000e+00
	1.511527951414404e-10

 158	1.580000000000001e-01
	1.580000000000001e-01
	1.580000000000001e-01
	-1.512928081426335e-10
	0.000000000000000e+00
	0.000000000000000e+00
	1.512928081426335e-10

 159	1.590000000000001e-01
	1.590000000000001e-01
	1.590000000000001e-01
	-1.514324915463661e-10
	0.000000000000000e+00
	0.000000000000000e+00
	1.514324915463661e-10

 160	1.600000000000001e-01
	1.600000000000001e-01
	1.600000000000001e-01
	-1.515718626998730e-10
	0.000000000000000e+00
	0.000000000000000e+00
	1.515718626998730e-10

 161	1.610000000000001e-01
	1.610000000000001e-01
	1.610000000000001e-01
	-1.517109285420482e-10
	0.000000000000000e+00
	0.000000000000000e+00
	1.517109285420482e-10

 162	1.620000000000001e-01
	1.620000000000001e-01
	1.620000000000001e-01
	-1.518496856034446e-10
	0.000000000000000e+00
	0.000000000000000e+00
	1.518496856034446e-10

 163	1.630000000000001e-01
	1.630000000000001e-01
	1.630000000000001e-01
	-1.519881581701910e-10
	0.000000000000000e+00
	0.000000000000000e+00
	1.519881581701910e-10

 164	1.640000000000001e-01
	1.640000000000001e-01
	1.640000000000001e-01
	-1.521263462422873e-10
	0.000000000000000e+00
	0.000000000000000e+00
	1.521263462422873e-10

 165	1.650000000000001e-01
	1.650000000000001e-01
	1.650000000000001e-01
	-1.522642567586274e-10
	0.000000000000000e+00
	0.000000000000000e+00
	1.522642567586274e-10

 166	1.660000000000001e-01
	1.660000000000001e-01
	1.660000000000001e-01
	-1.524019001275523e-10
	0.000000000000000e+00
	0.000000000000000e+00
	1.524019001275523e-10

 167	1.670000000000001e-01
	1.670000000000001e-01
	1.670000000000001e-01
	-1.525392798185088e-10
	0.000000000000000e+00
	0.000000000000000e+00
	1.525392798185088e-10

 168	1.680000000000001e-01
	1.680000000000001e-01
	1.680000000000001e-01
	-1.526764027703909e-10
	0.000000000000000e+00
	0.000000000000000e+00
	1.526764027703909e-10

 169	1.690000000000001e-01
	1.690000000000001e-01
	1.690000000000001e-01
	-1.528132863304332e-10
	0.000000000000000e+00
	0.000000000000000e+00
	1.528132863304332e-10

 170	1.700000000000001e-01
	1.700000000000001e-01
	1.700000000000001e-01
	-1.529499235597420e-10
	0.000000000000000e+00
	0.000000000000000e+00
	1.529499235597420e-10

 171	1.710000000000001e-01
	1.710000000000001e-01
	1.710000000000001e-01
	-1.530863213972111e-10
	0.000000000000000e+00
	0.000000000000000e+00
	1.530863213972111e-10

 172	1.720000000000001e-01
	1.720000000000001e-01
	1.720000000000001e-01
	-1.532224971900753e-10
	0.000000000000000e+00
	0.000000000000000e+00
	1.532224971900753e-10

 173	1.730000000000001e-01
	1.730000000000001e-01
	1.730000000000001e-01
	-1.533584509383346e-10
	0.000000000000000e+00
	0.000000000000000e+00
	1.533584509383346e-10

 174	1.740000000000001e-01
	1.740000000000001e-01
	1.740000000000001e-01
	-1.534941757030950e-10
	0.000000000000000e+00
	0.000000000000000e+00
	1.534941757030950e-10

 175	1.750000000000001e-01
	1.750000000000001e-01
	1.750000000000001e-01
	-1.536296992399322e-10
	0.000000000000000e+00
	0.000000000000000e+00
	1.536296992399322e-10

 176	1.760000000000001e-01
	1.760000000000001e-01
	1.760000000000001e-01
	-1.537650111405053e-10
	0.000000000000000e+00
	0.000000000000000e+00
	1.537650111405053e-10

 177	1.770000000000001e-01
	1.770000000000001e-01
	1.770000000000001e-01
	-1.539001252826022e-10
	0.000000000000000e+00
	0.000000000000000e+00
	1.539001252826022e-10

 178	1.780000000000001e-01
	1.780000000000001e-01